16102695
  -OEChem-10212405402D

 37 39  0     0  0  0  0  0  0999 V2000
    3.5352   -0.4797    0.0000 O   0  0  0  0  0  0  0  0  0  0  0  0
    4.3442    0.9216    0.0000 O   0  0  0  0  0  0  0  0  0  0  0  0
    8.8468   -1.5938    0.0000 N   0  0  0  0  0  0  0  0  0  0  0  0
    2.8660    0.2634    0.0000 C   0  0  0  0  0  0  0  0  0  0  0  0
    3.3660    1.1295    0.0000 C   0  0  0  0  0  0  0  0  0  0  0  0
    2.1229   -0.4057    0.0000 C   0  0  0  0  0  0  0  0  0  0  0  0
    2.0000    0.7634    0.0000 C   0  0  0  0  0  0  0  0  0  0  0  0
    3.5739    2.1076    0.0000 C   0  0  0  0  0  0  0  0  0  0  0  0
    2.5000    1.6295    0.0000 C   0  0  0  0  0  0  0  0  0  0  0  0
    5.3147   -0.5730    0.0000 C   0  0  0  0  0  0  0  0  0  0  0  0
    6.1808   -0.0730    0.0000 C   0  0  0  0  0  0  0  0  0  0  0  0
    5.3147   -1.5730    0.0000 C   0  0  0  0  0  0  0  0  0  0  0  0
    7.0468   -0.5730    0.0000 C   0  0  0  0  0  0  0  0  0  0  0  0
    7.0468   -1.5730    0.0000 C   0  0  0  0  0  0  0  0  0  0  0  0
    6.1808   -2.0730    0.0000 C   0  0  0  0  0  0  0  0  0  0  0  0
    7.9407   -0.0383    0.0000 C   0  0  0  0  0  0  0  0  0  0  0  0
    7.9407   -2.1076    0.0000 C   0  0  0  0  0  0  0  0  0  0  0  0
    8.8468   -0.5521    0.0000 C   0  0  0  0  0  0  0  0  0  0  0  0
    4.4487   -0.0730    0.0000 B   0  0  0  0  0  0  0  0  0  0  0  0
    1.7080    0.0551    0.0000 H   0  0  0  0  0  0  0  0  0  0  0  0
    1.6621   -0.8205    0.0000 H   0  0  0  0  0  0  0  0  0  0  0  0
    2.5377   -0.8664    0.0000 H   0  0  0  0  0  0  0  0  0  0  0  0
    2.3100    1.3004    0.0000 H   0  0  0  0  0  0  0  0  0  0  0  0
    1.4631    1.0734    0.0000 H   0  0  0  0  0  0  0  0  0  0  0  0
    1.6900    0.2265    0.0000 H   0  0  0  0  0  0  0  0  0  0  0  0
    4.1804    1.9787    0.0000 H   0  0  0  0  0  0  0  0  0  0  0  0
    3.7028    2.7141    0.0000 H   0  0  0  0  0  0  0  0  0  0  0  0
    2.9675    2.2365    0.0000 H   0  0  0  0  0  0  0  0  0  0  0  0
    2.8100    2.1664    0.0000 H   0  0  0  0  0  0  0  0  0  0  0  0
    1.9631    1.9395    0.0000 H   0  0  0  0  0  0  0  0  0  0  0  0
    2.1900    1.0925    0.0000 H   0  0  0  0  0  0  0  0  0  0  0  0
    6.1808    0.5470    0.0000 H   0  0  0  0  0  0  0  0  0  0  0  0
    4.7778   -1.8830    0.0000 H   0  0  0  0  0  0  0  0  0  0  0  0
    6.1808   -2.6930    0.0000 H   0  0  0  0  0  0  0  0  0  0  0  0
    7.9336    0.5817    0.0000 H   0  0  0  0  0  0  0  0  0  0  0  0
    7.9336   -2.7276    0.0000 H   0  0  0  0  0  0  0  0  0  0  0  0
    9.3825   -0.2401    0.0000 H   0  0  0  0  0  0  0  0  0  0  0  0
  1  4  1  0  0  0  0
  1 19  1  0  0  0  0
  2  5  1  0  0  0  0
  2 19  1  0  0  0  0
  3 17  2  0  0  0  0
  3 18  1  0  0  0  0
  4  5  1  0  0  0  0
  4  6  1  0  0  0  0
  4  7  1  0  0  0  0
  5  8  1  0  0  0  0
  5  9  1  0  0  0  0
  6 20  1  0  0  0  0
  6 21  1  0  0  0  0
  6 22  1  0  0  0  0
  7 23  1  0  0  0  0
  7 24  1  0  0  0  0
  7 25  1  0  0  0  0
  8 26  1  0  0  0  0
  8 27  1  0  0  0  0
  8 28  1  0  0  0  0
  9 29  1  0  0  0  0
  9 30  1  0  0  0  0
  9 31  1  0  0  0  0
 10 11  2  0  0  0  0
 10 12  1  0  0  0  0
 10 19  1  0  0  0  0
 11 13  1  0  0  0  0
 11 32  1  0  0  0  0
 12 15  2  0  0  0  0
 12 33  1  0  0  0  0
 13 14  2  0  0  0  0
 13 16  1  0  0  0  0
 14 15  1  0  0  0  0
 14 17  1  0  0  0  0
 15 34  1  0  0  0  0
 16 18  2  0  0  0  0
 16 35  1  0  0  0  0
 17 36  1  0  0  0  0
 18 37  1  0  0  0  0
M  END
> <PUBCHEM_COMPOUND_CID>
16102695

> <PUBCHEM_COMPOUND_CANONICALIZED>
1

> <PUBCHEM_CACTVS_COMPLEXITY>
329

> <PUBCHEM_CACTVS_HBOND_ACCEPTOR>
3

> <PUBCHEM_CACTVS_HBOND_DONOR>
0

> <PUBCHEM_CACTVS_ROTATABLE_BOND>
1

> <PUBCHEM_CACTVS_SUBSKEYS>
AAADceJyMAAAAAAAAAAAAAAAAAAAASAAAAA8QAAAAAAAAACx8AAoHgAAAAAADETBmgQ+gNIIEACgAjBnRACCgCAxAiAI2CA4ZJgJIOLAkZGEIAhggADIyAcQgIAOgAAAAAAQAAAAAAAAACAAAAAAAAAAAA==

> <PUBCHEM_IUPAC_OPENEYE_NAME>
6-(4,4,5,5-tetramethyl-1,3,2-dioxaborolan-2-yl)isoquinoline

> <PUBCHEM_IUPAC_CAS_NAME>
6-(4,4,5,5-tetramethyl-1,3,2-dioxaborolan-2-yl)isoquinoline

> <PUBCHEM_IUPAC_NAME_MARKUP>
6-(4,4,5,5-tetramethyl-1,3,2-dioxaborolan-2-yl)isoquinoline

> <PUBCHEM_IUPAC_NAME>
6-(4,4,5,5-tetramethyl-1,3,2-dioxaborolan-2-yl)isoquinoline

> <PUBCHEM_IUPAC_SYSTEMATIC_NAME>
6-(4,4,5,5-tetramethyl-1,3,2-dioxaborolan-2-yl)isoquinoline

> <PUBCHEM_IUPAC_TRADITIONAL_NAME>
6-(4,4,5,5-tetramethyl-1,3,2-dioxaborolan-2-yl)isoquinoline

> <PUBCHEM_IUPAC_INCHI>
InChI=1S/C15H18BNO2/c1-14(2)15(3,4)19-16(18-14)13-6-5-12-10-17-8-7-11(12)9-13/h5-10H,1-4H3

> <PUBCHEM_IUPAC_INCHIKEY>
LFALMDZWCMSBFO-UHFFFAOYSA-N

> <PUBCHEM_EXACT_MASS>
255.1430590

> <PUBCHEM_MOLECULAR_FORMULA>
C15H18BNO2

> <PUBCHEM_MOLECULAR_WEIGHT>
255.12

> <PUBCHEM_OPENEYE_CAN_SMILES>
B1(OC(C(O1)(C)C)(C)C)C2=CC3=C(C=C2)C=NC=C3

> <PUBCHEM_OPENEYE_ISO_SMILES>
B1(OC(C(O1)(C)C)(C)C)C2=CC3=C(C=C2)C=NC=C3

> <PUBCHEM_CACTVS_TPSA>
31.4

> <PUBCHEM_MONOISOTOPIC_WEIGHT>
255.1430590

> <PUBCHEM_TOTAL_CHARGE>
0

> <PUBCHEM_HEAVY_ATOM_COUNT>
19

> <PUBCHEM_ATOM_DEF_STEREO_COUNT>
0

> <PUBCHEM_ATOM_UDEF_STEREO_COUNT>
0

> <PUBCHEM_BOND_DEF_STEREO_COUNT>
0

> <PUBCHEM_BOND_UDEF_STEREO_COUNT>
0

> <PUBCHEM_ISOTOPIC_ATOM_COUNT>
0

> <PUBCHEM_COMPONENT_COUNT>
1

> <PUBCHEM_CACTVS_TAUTO_COUNT>
-1

> <PUBCHEM_COORDINATE_TYPE>
1
5
255

> <PUBCHEM_BONDANNOTATIONS>
10  11  8
10  12  8
11  13  8
12  15  8
13  14  8
13  16  8
14  15  8
14  17  8
16  18  8
3  17  8
3  18  8

$$$$
