25953
  -OEChem-10232404282D

  2  0  0     0  0  0  0  0  0999 V2000
    3.0000    0.0000    0.0000 Cs  0  3  0  0  0  0  0  0  0  0  0  0
    2.0000    0.0000    0.0000 F   0  5  0  0  0  0  0  0  0  0  0  0
M  CHG  2   1   1   2  -1
M  END
> <PUBCHEM_COMPOUND_CID>
25953

> <PUBCHEM_COMPOUND_CANONICALIZED>
1

> <PUBCHEM_CACTVS_COMPLEXITY>
2

> <PUBCHEM_CACTVS_HBOND_ACCEPTOR>
1

> <PUBCHEM_CACTVS_HBOND_DONOR>
0

> <PUBCHEM_CACTVS_ROTATABLE_BOND>
0

> <PUBCHEM_CACTVS_SUBSKEYS>
AAADcQAAAQAAAAAAAAAIAAAAAAAAAAAAAAAAAAAAAAAAAAAAAAAAAAAAAAAAAAAAAAAAAAAAAAAAAAAAAAAAAAAAAAAAAAAAAAAAAAAAAAAAAAAAAAAAAAAAAAAAAAAAAAAAAAAAAAAAAAAAAAAAAAAAAA==

> <PUBCHEM_IUPAC_OPENEYE_NAME>
cesium;fluoride

> <PUBCHEM_IUPAC_CAS_NAME>
cesium;fluoride

> <PUBCHEM_IUPAC_NAME_MARKUP>
cesium;fluoride

> <PUBCHEM_IUPAC_NAME>
cesium;fluoride

> <PUBCHEM_IUPAC_SYSTEMATIC_NAME>
cesium;fluoride

> <PUBCHEM_IUPAC_TRADITIONAL_NAME>
cesium;fluoride

> <PUBCHEM_IUPAC_INCHI>
InChI=1S/Cs.FH/h;1H/q+1;/p-1

> <PUBCHEM_IUPAC_INCHIKEY>
XJHCXCQVJFPJIK-UHFFFAOYSA-M

> <PUBCHEM_EXACT_MASS>
151.90385512

> <PUBCHEM_MOLECULAR_FORMULA>
CsF

> <PUBCHEM_MOLECULAR_WEIGHT>
151.9038551

> <PUBCHEM_OPENEYE_CAN_SMILES>
[F-].[Cs+]

> <PUBCHEM_OPENEYE_ISO_SMILES>
[F-].[Cs+]

> <PUBCHEM_CACTVS_TPSA>
0

> <PUBCHEM_MONOISOTOPIC_WEIGHT>
151.90385512

> <PUBCHEM_TOTAL_CHARGE>
0

> <PUBCHEM_HEAVY_ATOM_COUNT>
2

> <PUBCHEM_ATOM_DEF_STEREO_COUNT>
0

> <PUBCHEM_ATOM_UDEF_STEREO_COUNT>
0

> <PUBCHEM_BOND_DEF_STEREO_COUNT>
0

> <PUBCHEM_BOND_UDEF_STEREO_COUNT>
0

> <PUBCHEM_ISOTOPIC_ATOM_COUNT>
0

> <PUBCHEM_COMPONENT_COUNT>
2

> <PUBCHEM_CACTVS_TAUTO_COUNT>
-1

> <PUBCHEM_NONSTANDARDBOND>
1  2  7

> <PUBCHEM_COORDINATE_TYPE>
1
5
255

$$$$
10942626
  -OEChem-10232404282D

  2  0  0     0  0  0  0  0  0999 V2000
    3.0000    0.0000    0.0000 Cs  0  3  0  0  0  0  0  0  0  0  0  0
    2.0000    0.0000    0.0000 F  -1  5  0  0  0  0  0  0  0  0  0  0
M  CHG  2   1   1   2  -1
M  ISO  1   2  18
M  END
> <PUBCHEM_COMPOUND_CID>
10942626

> <PUBCHEM_COMPOUND_CANONICALIZED>
1

> <PUBCHEM_CACTVS_COMPLEXITY>
2

> <PUBCHEM_CACTVS_HBOND_ACCEPTOR>
1

> <PUBCHEM_CACTVS_HBOND_DONOR>
0

> <PUBCHEM_CACTVS_ROTATABLE_BOND>
0

> <PUBCHEM_CACTVS_SUBSKEYS>
AAADcQAAAQAAAAAAAAAIAAAAAAAAAAAAAAAAAAAAAAAAAAAAAAAAAAAAAAAAAAAAAAAAAAAAAAAAAAAAAAAAAAAAAAAAAAAAAAAAAAAAAAAAAAAAAAAAAAAAAAAAAAAAAAAAAAAAAAAAAAAAAAAAAAAAAA==

> <PUBCHEM_IUPAC_OPENEYE_NAME>
cesium;fluorine-18(1-)

> <PUBCHEM_IUPAC_CAS_NAME>
cesium;fluorine-18(1-)

> <PUBCHEM_IUPAC_NAME_MARKUP>
cesium;fluorine-18(1-)

> <PUBCHEM_IUPAC_NAME>
cesium;fluorine-18(1-)

> <PUBCHEM_IUPAC_SYSTEMATIC_NAME>
cesium;fluorine-18(1-)

> <PUBCHEM_IUPAC_TRADITIONAL_NAME>
cesium;fluorine-18(1-)

> <PUBCHEM_IUPAC_INCHI>
InChI=1S/Cs.FH/h;1H/q+1;/p-1/i;1-1

> <PUBCHEM_IUPAC_INCHIKEY>
XJHCXCQVJFPJIK-HCMAANCNSA-M

> <PUBCHEM_EXACT_MASS>
150.906389

> <PUBCHEM_MOLECULAR_FORMULA>
CsF

> <PUBCHEM_MOLECULAR_WEIGHT>
150.906389

> <PUBCHEM_OPENEYE_CAN_SMILES>
[F-].[Cs+]

> <PUBCHEM_OPENEYE_ISO_SMILES>
[18F-].[Cs+]

> <PUBCHEM_CACTVS_TPSA>
0

> <PUBCHEM_MONOISOTOPIC_WEIGHT>
150.906389

> <PUBCHEM_TOTAL_CHARGE>
0

> <PUBCHEM_HEAVY_ATOM_COUNT>
2

> <PUBCHEM_ATOM_DEF_STEREO_COUNT>
0

> <PUBCHEM_ATOM_UDEF_STEREO_COUNT>
0

> <PUBCHEM_BOND_DEF_STEREO_COUNT>
0

> <PUBCHEM_BOND_UDEF_STEREO_COUNT>
0

> <PUBCHEM_ISOTOPIC_ATOM_COUNT>
1

> <PUBCHEM_COMPONENT_COUNT>
2

> <PUBCHEM_CACTVS_TAUTO_COUNT>
-1

> <PUBCHEM_NONSTANDARDBOND>
1  2  7

> <PUBCHEM_COORDINATE_TYPE>
1
5
255

$$$$
169410018
  -OEChem-10232404282D

  2  0  0     0  0  0  0  0  0999 V2000
    0.0000    2.5000    0.0000 Cs  0  4  0  0  0  0  0  0  0  0  0  0
    0.0000    0.0000    0.0000 F   0  5  0  0  0  0  0  0  0  0  0  0
M  CHG  1   2  -1
M  RAD  1   1   2
M  END
> <PUBCHEM_COMPOUND_CID>
169410018

> <PUBCHEM_COMPOUND_CANONICALIZED>
1

> <PUBCHEM_CACTVS_COMPLEXITY>
0

> <PUBCHEM_CACTVS_HBOND_ACCEPTOR>
1

> <PUBCHEM_CACTVS_HBOND_DONOR>
0

> <PUBCHEM_CACTVS_ROTATABLE_BOND>
0

> <PUBCHEM_CACTVS_SUBSKEYS>
AAADcQAAAQAAAAAAAAAIAAAAAAAAAAAAAAAAAAAAAAAAAAAAAAAAAAAAAAAAAAAAAAAAAAAAAAAAAAAAAAAAAAAAAAAAAAAAAAAAAAAAAAAAAAAAAAAAAAAAAAAAAAAAAAAAAAAAAAAAAAAAAAAAAAAAAA==

> <PUBCHEM_IUPAC_OPENEYE_NAME>
cesium;fluoride

> <PUBCHEM_IUPAC_CAS_NAME>
cesium;fluoride

> <PUBCHEM_IUPAC_NAME_MARKUP>
cesium;fluoride

> <PUBCHEM_IUPAC_NAME>
cesium;fluoride

> <PUBCHEM_IUPAC_SYSTEMATIC_NAME>
cesium;fluoride

> <PUBCHEM_IUPAC_TRADITIONAL_NAME>
cesium;fluoride

> <PUBCHEM_IUPAC_INCHI>
InChI=1S/Cs.FH/h;1H/p-1

> <PUBCHEM_IUPAC_INCHIKEY>
UYOKKPUNBDYQBD-UHFFFAOYSA-M

> <PUBCHEM_EXACT_MASS>
151.90385512

> <PUBCHEM_MOLECULAR_FORMULA>
CsF-

> <PUBCHEM_MOLECULAR_WEIGHT>
151.9038551

> <PUBCHEM_OPENEYE_CAN_SMILES>
[F-].[Cs]

> <PUBCHEM_OPENEYE_ISO_SMILES>
[F-].[Cs]

> <PUBCHEM_CACTVS_TPSA>
0

> <PUBCHEM_MONOISOTOPIC_WEIGHT>
151.90385512

> <PUBCHEM_TOTAL_CHARGE>
-1

> <PUBCHEM_HEAVY_ATOM_COUNT>
2

> <PUBCHEM_ATOM_DEF_STEREO_COUNT>
0

> <PUBCHEM_ATOM_UDEF_STEREO_COUNT>
0

> <PUBCHEM_BOND_DEF_STEREO_COUNT>
0

> <PUBCHEM_BOND_UDEF_STEREO_COUNT>
0

> <PUBCHEM_ISOTOPIC_ATOM_COUNT>
0

> <PUBCHEM_COMPONENT_COUNT>
2

> <PUBCHEM_CACTVS_TAUTO_COUNT>
-1

> <PUBCHEM_COORDINATE_TYPE>
1
5
255

$$$$
