154996196
  -OEChem-10222408462D

 66 72  0     0  0  0  0  0  0999 V2000
    8.4224    1.5249    0.0000 P   0  0  0  0  0  0  0  0  0  0  0  0
   13.0237   -3.0202    0.0000 F   0  0  0  0  0  0  0  0  0  0  0  0
   11.6373   -3.2992    0.0000 F   0  0  0  0  0  0  0  0  0  0  0  0
   12.7448   -1.6338    0.0000 F   0  0  0  0  0  0  0  0  0  0  0  0
    2.0000    2.2885    0.0000 F   0  0  0  0  0  0  0  0  0  0  0  0
    2.6463    1.0306    0.0000 F   0  0  0  0  0  0  0  0  0  0  0  0
    3.2579    2.9348    0.0000 F   0  0  0  0  0  0  0  0  0  0  0  0
    9.0459    0.7431    0.0000 O   0  0  0  0  0  0  0  0  0  0  0  0
    7.4224    1.5249    0.0000 O   0  0  0  0  0  0  0  0  0  0  0  0
    8.4224    2.5249    0.0000 O   0  0  0  0  0  0  0  0  0  0  0  0
    9.2042    2.1484    0.0000 O   0  0  0  0  0  0  0  0  0  0  0  0
   11.3583   -1.9128    0.0000 O   0  0  0  0  0  0  0  0  0  0  0  0
    3.9042    1.6770    0.0000 O   0  0  0  0  0  0  0  0  0  0  0  0
    7.9224   -0.6657    0.0000 C   0  0  0  0  0  0  0  0  0  0  0  0
    7.0214   -0.2319    0.0000 C   0  0  0  0  0  0  0  0  0  0  0  0
    8.8234   -0.2319    0.0000 C   0  0  0  0  0  0  0  0  0  0  0  0
    6.7989    0.7431    0.0000 C   0  0  0  0  0  0  0  0  0  0  0  0
    7.8286   -1.7031    0.0000 C   0  0  0  0  0  0  0  0  0  0  0  0
    6.2689   -0.9520    0.0000 C   0  0  0  0  0  0  0  0  0  0  0  0
    9.6929   -0.8053    0.0000 C   0  0  0  0  0  0  0  0  0  0  0  0
    5.8084    1.0654    0.0000 C   0  0  0  0  0  0  0  0  0  0  0  0
    8.6846   -2.2965    0.0000 C   0  0  0  0  0  0  0  0  0  0  0  0
    5.2712   -0.6527    0.0000 C   0  0  0  0  0  0  0  0  0  0  0  0
    9.6231   -1.8446    0.0000 C   0  0  0  0  0  0  0  0  0  0  0  0
    5.0394    0.3628    0.0000 C   0  0  0  0  0  0  0  0  0  0  0  0
   10.5888   -0.3610    0.0000 C   0  0  0  0  0  0  0  0  0  0  0  0
    5.5972    2.0428    0.0000 C   0  0  0  0  0  0  0  0  0  0  0  0
    7.1968   -2.5852    0.0000 C   0  0  0  0  0  0  0  0  0  0  0  0
    6.5347   -2.0040    0.0000 C   0  0  0  0  0  0  0  0  0  0  0  0
    9.1629   -3.2704    0.0000 C   0  0  0  0  0  0  0  0  0  0  0  0
    4.4702   -1.3845    0.0000 C   0  0  0  0  0  0  0  0  0  0  0  0
    7.5918   -3.7391    0.0000 C   0  0  0  0  0  0  0  0  0  0  0  0
    5.7508   -2.7541    0.0000 C   0  0  0  0  0  0  0  0  0  0  0  0
    8.6124   -3.9977    0.0000 C   0  0  0  0  0  0  0  0  0  0  0  0
    4.7116   -2.4423    0.0000 C   0  0  0  0  0  0  0  0  0  0  0  0
   11.4215   -0.9148    0.0000 C   0  0  0  0  0  0  0  0  0  0  0  0
    4.6451    2.3486    0.0000 C   0  0  0  0  0  0  0  0  0  0  0  0
   10.6520    0.6370    0.0000 C   0  0  0  0  0  0  0  0  0  0  0  0
    6.3380    2.7145    0.0000 C   0  0  0  0  0  0  0  0  0  0  0  0
   12.3174   -0.4705    0.0000 C   0  0  0  0  0  0  0  0  0  0  0  0
    4.4338    3.3260    0.0000 C   0  0  0  0  0  0  0  0  0  0  0  0
   11.5479    1.0812    0.0000 C   0  0  0  0  0  0  0  0  0  0  0  0
    6.1268    3.6919    0.0000 C   0  0  0  0  0  0  0  0  0  0  0  0
   12.3806    0.5275    0.0000 C   0  0  0  0  0  0  0  0  0  0  0  0
    5.1747    3.9977    0.0000 C   0  0  0  0  0  0  0  0  0  0  0  0
   12.1910   -2.4665    0.0000 C   0  0  0  0  0  0  0  0  0  0  0  0
    2.9521    1.9828    0.0000 C   0  0  0  0  0  0  0  0  0  0  0  0
   10.1367   -2.1919    0.0000 H   0  0  0  0  0  0  0  0  0  0  0  0
    4.4476    0.5478    0.0000 H   0  0  0  0  0  0  0  0  0  0  0  0
    6.5834   -2.4951    0.0000 H   0  0  0  0  0  0  0  0  0  0  0  0
    7.1306   -2.1753    0.0000 H   0  0  0  0  0  0  0  0  0  0  0  0
    9.7801   -3.3297    0.0000 H   0  0  0  0  0  0  0  0  0  0  0  0
    3.8784   -1.1995    0.0000 H   0  0  0  0  0  0  0  0  0  0  0  0
    7.1716   -4.1950    0.0000 H   0  0  0  0  0  0  0  0  0  0  0  0
    5.8958   -3.3570    0.0000 H   0  0  0  0  0  0  0  0  0  0  0  0
    8.8176   -4.5828    0.0000 H   0  0  0  0  0  0  0  0  0  0  0  0
    4.2587   -2.8658    0.0000 H   0  0  0  0  0  0  0  0  0  0  0  0
   10.1358    0.9803    0.0000 H   0  0  0  0  0  0  0  0  0  0  0  0
    6.9283    2.5249    0.0000 H   0  0  0  0  0  0  0  0  0  0  0  0
   12.8337   -0.8138    0.0000 H   0  0  0  0  0  0  0  0  0  0  0  0
    3.8435    3.5156    0.0000 H   0  0  0  0  0  0  0  0  0  0  0  0
    8.9593    2.8349    0.0000 H   0  0  0  0  0  0  0  0  0  0  0  0
   11.5871    1.7000    0.0000 H   0  0  0  0  0  0  0  0  0  0  0  0
    6.5861    4.1083    0.0000 H   0  0  0  0  0  0  0  0  0  0  0  0
   12.9361    0.8030    0.0000 H   0  0  0  0  0  0  0  0  0  0  0  0
    5.0437    4.6037    0.0000 H   0  0  0  0  0  0  0  0  0  0  0  0
  1  8  1  0  0  0  0
  1  9  1  0  0  0  0
  1 10  1  0  0  0  0
  1 11  2  0  0  0  0
  2 46  1  0  0  0  0
  3 46  1  0  0  0  0
  4 46  1  0  0  0  0
  5 47  1  0  0  0  0
  6 47  1  0  0  0  0
  7 47  1  0  0  0  0
  8 16  1  0  0  0  0
  9 17  1  0  0  0  0
 10 62  1  0  0  0  0
 12 36  1  0  0  0  0
 12 46  1  0  0  0  0
 13 37  1  0  0  0  0
 13 47  1  0  0  0  0
 14 15  1  0  0  0  0
 14 16  2  0  0  0  0
 14 18  1  0  0  0  0
 15 17  2  0  0  0  0
 15 19  1  0  0  0  0
 16 20  1  0  0  0  0
 17 21  1  0  0  0  0
 18 22  1  0  0  0  0
 18 28  2  0  0  0  0
 19 23  1  0  0  0  0
 19 29  2  0  0  0  0
 20 24  2  0  0  0  0
 20 26  1  0  0  0  0
 21 25  2  0  0  0  0
 21 27  1  0  0  0  0
 22 24  1  0  0  0  0
 22 30  2  0  0  0  0
 23 25  1  0  0  0  0
 23 31  2  0  0  0  0
 24 48  1  0  0  0  0
 25 49  1  0  0  0  0
 26 36  1  0  0  0  0
 26 38  2  0  0  0  0
 27 37  1  0  0  0  0
 27 39  2  0  0  0  0
 28 32  1  0  0  0  0
 28 50  1  0  0  0  0
 29 33  1  0  0  0  0
 29 51  1  0  0  0  0
 30 34  1  0  0  0  0
 30 52  1  0  0  0  0
 31 35  1  0  0  0  0
 31 53  1  0  0  0  0
 32 34  2  0  0  0  0
 32 54  1  0  0  0  0
 33 35  2  0  0  0  0
 33 55  1  0  0  0  0
 34 56  1  0  0  0  0
 35 57  1  0  0  0  0
 36 40  2  0  0  0  0
 37 41  2  0  0  0  0
 38 42  1  0  0  0  0
 38 58  1  0  0  0  0
 39 43  1  0  0  0  0
 39 59  1  0  0  0  0
 40 44  1  0  0  0  0
 40 60  1  0  0  0  0
 41 45  1  0  0  0  0
 41 61  1  0  0  0  0
 42 44  2  0  0  0  0
 42 63  1  0  0  0  0
 43 45  2  0  0  0  0
 43 64  1  0  0  0  0
 44 65  1  0  0  0  0
 45 66  1  0  0  0  0
M  END
> <PUBCHEM_COMPOUND_CID>
154996196

> <PUBCHEM_COMPOUND_CANONICALIZED>
1

> <PUBCHEM_CACTVS_COMPLEXITY>
1060

> <PUBCHEM_CACTVS_HBOND_ACCEPTOR>
12

> <PUBCHEM_CACTVS_HBOND_DONOR>
1

> <PUBCHEM_CACTVS_ROTATABLE_BOND>
4

> <PUBCHEM_CACTVS_SUBSKEYS>
AAADceB8OcIAAAAAAAAAAAAAAAAAAAAAAAAwYMGDBIAAAADBVAAAGwAACCAADASAmBAwBsAABRCAQiBCAIACCAAgIAAIiAAGCIgMJiKEMRqAMCAkwBEIqAfAwPAO4AADAAAYAADAAAYAADAAAAAAAAAAAA==

> <PUBCHEM_IUPAC_OPENEYE_NAME>
13-hydroxy-10,16-bis[2-(trifluoromethoxy)phenyl]-12,14-dioxa-13lambda5-phosphapentacyclo[13.8.0.02,11.03,8.018,23]tricosa-1(15),2(11),3,5,7,9,16,18,20,22-decaene 13-oxide

> <PUBCHEM_IUPAC_CAS_NAME>
13-hydroxy-10,16-bis[2-(trifluoromethoxy)phenyl]-12,14-dioxa-13lambda5-phosphapentacyclo[13.8.0.02,11.03,8.018,23]tricosa-1(15),2(11),3,5,7,9,16,18,20,22-decaene 13-oxide

> <PUBCHEM_IUPAC_NAME_MARKUP>
13-hydroxy-10,16-bis[2-(trifluoromethoxy)phenyl]-12,14-dioxa-13&lambda;<SUP>5</SUP>-phosphapentacyclo[13.8.0.0<SUP>2,11</SUP>.0<SUP>3,8</SUP>.0<SUP>18,23</SUP>]tricosa-1(15),2(11),3,5,7,9,16,18,20,22-decaene 13-oxide

> <PUBCHEM_IUPAC_NAME>
13-hydroxy-10,16-bis[2-(trifluoromethoxy)phenyl]-12,14-dioxa-13lambda5-phosphapentacyclo[13.8.0.02,11.03,8.018,23]tricosa-1(15),2(11),3,5,7,9,16,18,20,22-decaene 13-oxide

> <PUBCHEM_IUPAC_SYSTEMATIC_NAME>
13-oxidanyl-10,16-bis[2-(trifluoromethyloxy)phenyl]-12,14-dioxa-13lambda5-phosphapentacyclo[13.8.0.02,11.03,8.018,23]tricosa-1(15),2(11),3,5,7,9,16,18,20,22-decaene 13-oxide

> <PUBCHEM_IUPAC_TRADITIONAL_NAME>
13-hydroxy-10,16-bis[2-(trifluoromethoxy)phenyl]-12,14-dioxa-13lambda5-phosphapentacyclo[13.8.0.02,11.03,8.018,23]tricosa-1(15),2(11),3,5,7,9,16,18,20,22-decaene 13-oxide

> <PUBCHEM_IUPAC_INCHI>
InChI=1S/C34H19F6O6P/c35-33(36,37)43-27-15-7-5-13-23(27)25-17-19-9-1-3-11-21(19)29-30-22-12-4-2-10-20(22)18-26(32(30)46-47(41,42)45-31(25)29)24-14-6-8-16-28(24)44-34(38,39)40/h1-18H,(H,41,42)

> <PUBCHEM_IUPAC_INCHIKEY>
ATPQWPFLEGXKPJ-UHFFFAOYSA-N

> <PUBCHEM_XLOGP3_AA>
10.4

> <PUBCHEM_EXACT_MASS>
668.08234429

> <PUBCHEM_MOLECULAR_FORMULA>
C34H19F6O6P

> <PUBCHEM_MOLECULAR_WEIGHT>
668.5

> <PUBCHEM_OPENEYE_CAN_SMILES>
C1=CC=C2C(=C1)C=C(C3=C2C4=C(C(=CC5=CC=CC=C54)C6=CC=CC=C6OC(F)(F)F)OP(=O)(O3)O)C7=CC=CC=C7OC(F)(F)F

> <PUBCHEM_OPENEYE_ISO_SMILES>
C1=CC=C2C(=C1)C=C(C3=C2C4=C(C(=CC5=CC=CC=C54)C6=CC=CC=C6OC(F)(F)F)OP(=O)(O3)O)C7=CC=CC=C7OC(F)(F)F

> <PUBCHEM_CACTVS_TPSA>
74.2

> <PUBCHEM_MONOISOTOPIC_WEIGHT>
668.08234429

> <PUBCHEM_TOTAL_CHARGE>
0

> <PUBCHEM_HEAVY_ATOM_COUNT>
47

> <PUBCHEM_ATOM_DEF_STEREO_COUNT>
0

> <PUBCHEM_ATOM_UDEF_STEREO_COUNT>
0

> <PUBCHEM_BOND_DEF_STEREO_COUNT>
0

> <PUBCHEM_BOND_UDEF_STEREO_COUNT>
0

> <PUBCHEM_ISOTOPIC_ATOM_COUNT>
0

> <PUBCHEM_COMPONENT_COUNT>
1

> <PUBCHEM_CACTVS_TAUTO_COUNT>
-1

> <PUBCHEM_COORDINATE_TYPE>
1
5
255

> <PUBCHEM_BONDANNOTATIONS>
14  16  8
14  18  8
15  17  8
15  19  8
16  20  8
17  21  8
18  22  8
18  28  8
19  23  8
19  29  8
20  24  8
21  25  8
22  24  8
22  30  8
23  25  8
23  31  8
26  36  8
26  38  8
27  37  8
27  39  8
28  32  8
29  33  8
30  34  8
31  35  8
32  34  8
33  35  8
36  40  8
37  41  8
38  42  8
39  43  8
40  44  8
41  45  8
42  44  8
43  45  8

$$$$
